# LAMMPS data file written by OVITO Basic 3.7.9
1966 atoms
1 atom types
-22.9355006377 82.9355006377 xlo xhi
-54.8396634112 54.8396634112 ylo yhi
-43.9979453846 63.9979453846 zlo zhi

Atoms  # atomic

48088 1 28.9743 -49.3988 8.82382
52936 1 26.0414 -46.5584 11.6278
52941 1 28.9036 -49.8635 11.5361
52938 1 27.5027 -47.9792 10.2278
52937 1 27.444 -48.4411 12.9444
52935 1 25.9848 -47.0089 14.3546
52940 1 28.8893 -47.5583 14.5651
86333 1 -20.7886 -47.0921 45.457
86337 1 -17.8264 -47.2394 45.5892
86330 1 -21.0227 -47.0403 48.2217
91329 1 -22.3018 -48.56 49.7938
91333 1 -19.3417 -48.7886 49.9005
91328 1 -22.3995 -48.626 52.7111
95989 1 -22.3596 -48.8297 55.6361
53182 1 24.5839 -45.1381 13.0162
52939 1 28.7484 -46.1281 11.8276
53178 1 23.1198 -43.7277 14.3847
57720 1 24.5335 -45.5538 15.7647
53184 1 25.8956 -43.3118 14.5289
53186 1 27.3139 -44.7095 13.2046
53192 1 29.1303 -45.1817 14.5867
57725 1 27.4193 -46.1194 15.985
57933 1 27.6282 -43.7404 16.0095
57926 1 24.4872 -41.8368 15.5839
57924 1 23.1663 -43.9623 17.1417
57929 1 25.9483 -44.6676 17.4283
57925 1 24.381 -43.0963 18.9757
57928 1 25.8893 -42.2744 17.398
58123 1 21.715 -39.6241 18.6045
57923 1 23.1029 -41.0862 17.2539
58130 1 25.9372 -39.8442 17.2146
58126 1 24.4101 -38.1997 18.7027
57927 1 24.5273 -40.5664 19.0085
62930 1 22.9635 -38.839 20.4301
77005 1 -16.4117 -42.6184 38.2684
77008 1 -13.5338 -42.581 38.2816
77002 1 -17.9633 -41.0269 36.6259
77222 1 -16.9902 -39.1792 37.7656
77228 1 -15.0617 -38.0657 36.6525
77006 1 -15.044 -40.9951 36.7533
77232 1 -13.4696 -39.7239 38.3043
77233 1 -11.9407 -38.3409 36.9737
77239 1 -9.07587 -38.3926 37.0109
81894 1 -19.4262 -42.555 40.9559
81898 1 -16.5477 -42.5957 41.048
81900 1 -14.9079 -44.1233 39.8447
81904 1 -11.9844 -44.2526 39.8635
82088 1 -17.0993 -38.9579 40.4794
77001 1 -18.1119 -41.0218 39.4463
81902 1 -14.3335 -41.6984 40.3476
77226 1 -15.7077 -40.4809 39.1014
82094 1 -14.2766 -38.9129 40.4683
82098 1 -11.8605 -38.6402 39.972
81905 1 -11.8883 -41.4128 39.9332
81892 1 -20.8415 -44.0291 42.43
81703 1 -22.266 -45.5099 43.8941
86550 1 -21.3998 -43.4362 44.7962
81896 1 -17.902 -44.1302 42.5562
81710 1 -19.3544 -45.6083 44.0008
81720 1 -16.3658 -45.7968 44.1834
86555 1 -18.8363 -43.327 44.709
81899 1 -14.9146 -44.35 42.7686
86561 1 -16.0852 -43.2771 44.62
81888 1 -22.6395 -42.0942 43.3208
81890 1 -21.219 -40.5991 41.8724
81893 1 -19.9205 -41.9201 43.2917
81897 1 -17.3392 -41.8529 43.2656
82085 1 -18.4775 -40.4583 41.8569
82090 1 -15.8269 -40.3551 41.8303
81901 1 -14.6025 -41.8481 43.1433
86328 1 -22.5345 -45.4411 46.6689
86552 1 -20.2587 -44.8339 46.1868
86549 1 -21.617 -43.303 47.5681
86557 1 -17.539 -44.717 46.0355
86335 1 -18.9141 -46.1516 47.471
91331 1 -21.7526 -46.2302 50.4014
86551 1 -20.3752 -44.7475 48.8952
91335 1 -19.032 -46.2052 50.206
91330 1 -21.849 -46.2233 53.1208
95992 1 -22.0061 -46.3219 55.9453
58124 1 21.719 -36.7223 18.6604
58125 1 23.0019 -37.6429 16.9181
58129 1 24.495 -35.8084 18.3697
63130 1 20.3555 -35.2675 20.0723
63133 1 21.8584 -34.1082 21.7256
58293 1 23.0483 -34.3158 19.6811
62932 1 23.25 -36.4173 20.4234
58298 1 25.9145 -34.2677 19.7874
63139 1 24.6638 -35.0736 21.7725
62939 1 25.985 -36.7511 20.1035
63144 1 27.3993 -35.2686 21.5418
63127 1 20.1483 -32.3071 20.0581
63377 1 21.3986 -30.4116 21.0775
58290 1 22.8487 -31.8422 19.7458
63134 1 22.7461 -31.6013 22.4164
63136 1 24.4472 -32.8548 21.1686
63383 1 24.2727 -30.1951 21.0034
63140 1 25.6627 -31.301 22.598
63142 1 27.2863 -32.7485 21.2724
63376 1 20.276 -29.6705 23.039
63129 1 20.2883 -32.5223 22.9095
63132 1 21.7548 -31.3807 24.6011
63135 1 23.6054 -33.352 23.4829
63137 1 24.6249 -31.4336 24.6882
63141 1 26.0417 -33.62 23.2204
63386 1 27.0913 -29.8641 24.0485
63143 1 27.3851 -32.179 24.6116
68087 1 -4.75948 -30.8973 26.8553
67893 1 -3.19405 -32.5205 28.4966
67897 1 -0.268875 -32.5164 28.5066
68094 1 -1.81727 -30.9736 26.972
68100 1 1.10784 -30.9463 26.9987
67903 1 2.69062 -32.5999 28.6146
68104 1 2.73431 -29.7936 28.634
68109 1 5.66235 -29.8647 28.7403
67942 1 23.1409 -33.0521 26.016
67945 1 25.9117 -33.2947 26.0796
68144 1 26.1707 -30.2625 26.2461
68149 1 28.8446 -30.8011 26.0527
72626 1 -1.69795 -34.0461 30.0383
72631 1 1.27932 -34.1504 30.0551
72813 1 -4.83281 -30.9593 29.741
72622 1 -3.33624 -32.5578 31.3369
68091 1 -2.4462 -30.3675 29.3082
72628 1 -1.16501 -31.6819 30.5943
72816 1 -2.65861 -30.3044 32.032
68098 1 0.281162 -30.1737 29.1438
72634 1 1.56447 -31.5472 30.4786
77229 1 -13.522 -36.7203 35.3284
77235 1 -10.611 -36.7724 35.3715
72625 1 -1.76355 -34.1765 32.9692
72604 1 -12.1721 -32.27 33.6754
77687 1 -11.0106 -30.4551 34.8214
72610 1 -9.19413 -32.4387 33.9191
72808 1 -7.82666 -30.9162 32.4064
77693 1 -8.20878 -30.3662 34.8192
72616 1 -6.2631 -32.5366 34.0658
72812 1 -4.95664 -30.9722 32.5386
77698 1 -5.49082 -30.3354 34.8529
72621 1 -3.43745 -32.6211 34.1487
72627 1 -1.32306 -31.7099 33.3216
77703 1 -2.82262 -30.3099 34.7681
77452 1 -15.182 -35.1003 36.435
77231 1 -13.4762 -36.8649 38.2331
77460 1 -10.4952 -33.9992 35.4494
77457 1 -12.6684 -34.7649 36.3609
77234 1 -11.2399 -36.0216 37.5443
77464 1 -8.90142 -35.5972 37.0418
77466 1 -7.63026 -34.0429 35.5348
77470 1 -6.06668 -35.7384 37.2017
77472 1 -4.66088 -34.223 35.7284
77477 1 -1.72291 -34.3776 35.87
77459 1 -11.2071 -33.2713 37.7105
77458 1 -12.4806 -31.9704 36.1985
77463 1 -9.7063 -31.8119 36.253
77465 1 -8.57806 -33.2238 37.6799
77469 1 -7.07513 -31.7622 36.2644
77471 1 -5.84122 -33.2202 37.6448
77474 1 -4.34025 -31.7836 36.2505
77479 1 -1.49841 -31.7937 36.1242
77227 1 -15.5809 -37.6713 39.0668
82095 1 -14.2153 -36.164 40.5244
77450 1 -15.4776 -34.8415 39.0154
77455 1 -12.7754 -34.645 39.0644
82100 1 -11.5706 -36.1349 40.4084
77461 1 -9.98033 -34.6623 39.1622
77238 1 -10.036 -37.3623 38.9376
77467 1 -7.28811 -34.6533 39.0682
82097 1 -12.9218 -37.5408 41.9719
63378 1 21.5626 -27.9143 21.4748
63382 1 24.17 -27.4947 21.0603
63384 1 25.6042 -28.6802 22.5037
63599 1 25.5958 -25.9911 22.4671
63591 1 21.5696 -25.2217 21.6456
63590 1 21.0843 -21.7694 21.136
63593 1 22.4921 -23.1265 22.4808
63597 1 24.0779 -24.691 21.1476
68090 1 -3.37767 -29.4073 25.3375
68096 1 -0.47011 -26.4595 25.2871
68097 1 -0.418546 -29.3838 25.4695
68102 1 2.49326 -26.5938 25.4964
68107 1 5.43935 -26.6832 25.6356
68112 1 8.3498 -26.5728 25.6642
63592 1 21.6462 -25.4424 24.5298
63381 1 23.2472 -26.8902 23.2484
63380 1 23.2455 -29.4581 23.1146
68142 1 24.7617 -28.6079 24.8383
68366 1 25.2451 -25.9507 25.0099
63385 1 27.0375 -27.3071 23.9372
68375 1 28.3267 -25.8648 25.3756
68148 1 28.5242 -28.4879 25.5124
63556 1 3.87074 -25.0543 23.9927
63562 1 6.82264 -25.0225 24.0973
63566 1 9.73633 -22.1871 24.134
68330 1 8.34699 -23.6116 25.5486
63572 1 12.6345 -22.235 24.1396
68335 1 11.385 -23.9131 25.8511
63578 1 15.5889 -22.2952 24.2285
68341 1 14.2679 -23.8865 25.7662
63584 1 18.487 -22.2721 24.2064
63588 1 20.0529 -23.7834 22.9556
68347 1 17.178 -23.9464 25.8125
68353 1 20.0702 -23.9483 25.7706
68359 1 22.3124 -23.1122 25.0199
63589 1 20.9266 -21.6726 23.8516
63594 1 23.8922 -24.5441 23.6621
68088 1 -3.72128 -29.0255 27.9521
68095 1 -0.996494 -28.8727 27.8386
68308 1 -0.800418 -26.1442 27.8133
68101 1 1.21786 -28.1775 27.0418
68315 1 1.9955 -26.0106 27.8577
68106 1 4.07221 -28.2129 27.1197
68321 1 4.67905 -25.9646 27.8771
68111 1 7.04452 -28.3072 27.2526
68328 1 7.40862 -25.9338 27.833
68116 1 9.98331 -28.2748 27.2686
68333 1 9.88325 -25.3349 27.2168
68339 1 12.9451 -25.5408 27.3848
68345 1 15.8861 -25.5818 27.4041
68357 1 21.7608 -25.7416 27.5046
68140 1 23.261 -27.1511 26.1308
68146 1 26.3488 -27.4718 26.4008
68147 1 27.6824 -28.9583 27.7656
68372 1 27.8038 -26.0833 27.9037
68152 1 29.9193 -27.0753 26.9437
68320 1 3.50945 -24.5892 26.4534
68325 1 6.2375 -24.5634 26.4616
68329 1 7.67527 -23.2135 27.9224
68334 1 9.88753 -22.4312 27.1183
68338 1 12.2635 -21.7066 26.4889
68340 1 13.4024 -23.1047 27.8823
68336 1 11.5023 -24.2903 28.9108
68344 1 15.0276 -21.669 26.5186
68346 1 16.1825 -23.1303 27.8929
68352 1 19.0756 -23.143 27.8539
68350 1 17.818 -21.6921 26.4871
68358 1 22.0207 -23.1921 27.7619
68356 1 20.6846 -21.6762 26.4354
68362 1 23.6504 -24.5586 26.3565
68379 1 29.6997 -24.456 26.8132
72810 1 -6.46352 -29.322 30.8962
72815 1 -3.93182 -28.8873 30.7144
68099 1 0.458038 -27.467 29.2967
72823 1 1.70108 -28.8367 30.7132
68105 1 3.13515 -27.4154 29.2613
68110 1 5.90796 -27.3835 29.229
72826 1 4.43825 -28.8192 30.6173
68115 1 8.8149 -27.242 29.1227
68151 1 29.1511 -27.574 29.2454
68331 1 8.98174 -24.4774 29.3066
68332 1 9.08728 -21.7294 29.3792
68337 1 11.8556 -21.733 29.2469
68376 1 29.2488 -24.6618 29.4014
72809 1 -6.74442 -28.9217 33.4198
72814 1 -4.06221 -28.8086 33.4421
6340 1 16.6866 -19.0815 -35.7401
6345 1 19.4823 -19.0822 -35.7071
6344 1 18.126 -17.6671 -37.2131
6548 1 16.7084 -16.2436 -35.7296
6554 1 19.5011 -16.2309 -35.7041
6337 1 15.1607 -17.6572 -34.3653
11123 1 16.6272 -19.0703 -32.9601
6342 1 18.0476 -20.6008 -34.3364
11127 1 19.42 -19.0574 -32.9333
11125 1 18.0042 -17.6331 -31.4558
6348 1 20.9608 -17.646 -34.2961
11314 1 16.6418 -16.2221 -32.9625
6552 1 18.082 -14.6961 -34.3335
11319 1 19.4427 -16.2125 -32.9285
63776 1 19.5624 -20.2889 22.4782
68533 1 8.13981 -20.6264 25.2981
68539 1 10.8273 -20.3577 25.2361
68545 1 13.7469 -20.2684 25.123
68551 1 16.5884 -20.2342 25.1255
68556 1 19.3938 -20.1705 25.1596
68531 1 7.84437 -20.3907 27.8736
68536 1 10.6317 -20.2264 27.9155
73247 1 16.2958 -17.4871 33.6702
78233 1 19.0531 -17.5199 35.0108
78228 1 17.4765 -19.0549 35.0932
73251 1 19.0096 -20.3417 33.6038
73252 1 19.2001 -17.5029 33.0117
78240 1 21.9895 -17.512 35.0434
73256 1 21.9601 -20.3991 33.5875
78235 1 20.4862 -19.1995 35.087
73257 1 22.0486 -17.5284 32.9946
78242 1 23.3999 -19.205 35.1023
78247 1 24.8829 -17.4811 35.0496
73261 1 24.9065 -20.3837 33.6183
78249 1 26.3477 -19.1114 35.1366
73262 1 24.887 -17.5503 33.048
73267 1 27.7036 -17.5251 33.7715
73450 1 19.0799 -14.674 33.704
78435 1 17.5071 -15.9707 35.1476
73454 1 22.025 -14.6457 33.7055
78441 1 20.5118 -15.8536 35.1637
73458 1 24.9763 -14.6879 33.7514
78451 1 26.4426 -15.9535 35.215
78446 1 23.4049 -15.838 35.1906
78226 1 16.1709 -17.5258 36.5371
78232 1 18.9793 -17.5533 37.1271
78231 1 18.9196 -20.3918 36.5124
78238 1 21.8565 -20.4575 36.5494
78239 1 21.8233 -17.5723 37.1481
78245 1 24.7874 -20.4577 36.5603
78246 1 24.6907 -17.5956 37.1538
78252 1 27.5852 -17.5792 36.6138
78438 1 18.9834 -14.7012 36.6229
78443 1 21.9154 -14.6683 36.6768
78448 1 24.8591 -14.718 36.6812
21285 1 -3.80525 -4.65153 -21.7608
21289 1 -0.942756 -4.66954 -21.7192
25979 1 -3.88582 -4.70598 -18.9863
21286 1 -2.41997 -6.17348 -20.3596
25985 1 -1.01696 -4.68354 -18.9427
21290 1 0.459088 -6.17251 -20.3383
21293 1 1.91217 -4.67966 -21.7322
25990 1 1.81314 -4.65953 -18.9303
25984 1 -1.07813 -4.69649 -16.136
25988 1 0.3878 -6.1646 -17.5103
25989 1 1.75994 -4.63285 -16.1242
16669 1 -2.28717 -0.313116 -26.1002
16675 1 0.583834 -0.297164 -26.0964
16908 1 0.566024 2.60838 -26.116
21477 1 -5.25425 -0.31123 -23.2107
16666 1 -3.73906 -1.74519 -24.6148
21478 1 -3.85425 -1.83552 -21.8252
21287 1 -2.32354 -3.24254 -23.2213
16672 1 -0.876791 -1.71032 -24.6145
21291 1 0.539748 -3.21343 -23.1902
16678 1 1.97546 -1.71711 -24.6247
21479 1 3.42293 -0.273557 -23.2164
21296 1 3.38646 -3.16182 -23.1535
21481 1 4.83356 -1.69826 -21.7437
21474 1 -6.78911 1.09271 -21.8584
21663 1 -5.242 2.53245 -23.2489
16665 1 -3.7514 1.08846 -24.6751
21665 1 -3.85014 4.04943 -21.838
21668 1 -2.42487 2.6068 -23.2704
16671 1 -0.86286 1.14981 -24.6442
16904 1 -0.883223 4.01742 -24.6522
21670 1 -0.945929 4.07298 -21.8972
16677 1 1.95077 1.17241 -24.6395
16912 1 1.94068 4.05023 -24.6462
21677 1 3.41588 2.61856 -23.2529
21674 1 1.89365 4.07237 -21.8453
21679 1 4.76299 4.06956 -21.7916
21480 1 4.81324 1.19269 -21.7571
26177 1 -6.86149 -1.80489 -19.0092
21281 1 -5.32702 -3.21064 -20.3611
21476 1 -5.34284 -0.335376 -20.3886
21294 1 3.35012 -3.19985 -20.3581
21482 1 6.27208 -0.258342 -20.3555
26189 1 4.74054 -1.67902 -18.942
26176 1 -6.88154 1.0943 -19.0312
21661 1 -5.34396 2.51251 -20.4463
26403 1 -3.95317 4.02509 -19.0287
26416 1 1.87522 4.08083 -19.0549
21681 1 6.24683 2.64875 -20.3774
26188 1 4.73229 1.17396 -19.0018
26424 1 4.68044 4.04644 -19.0276
25976 1 -5.38412 -3.23415 -17.5946
26179 1 -5.42635 -0.355855 -17.6285
26181 1 -4.03986 -1.77726 -16.1238
25982 1 -2.56435 -3.24967 -17.4968
26184 1 1.79767 -1.82125 -16.1204
25993 1 3.29184 -3.22117 -17.5481
26191 1 6.18368 -0.260218 -17.5296
26187 1 4.63881 -1.7023 -16.1314
26399 1 -5.44441 2.52901 -17.6391
26401 1 -3.99882 3.986 -16.2252
26180 1 -4.03672 1.10411 -16.1628
26408 1 -1.14581 4.03382 -16.1947
26420 1 3.25372 2.6318 -17.5414
26414 1 1.71882 4.06889 -16.2011
26186 1 4.65941 1.13347 -16.1631
25980 1 -2.56346 -3.22131 -14.7347
31085 1 -1.18422 -1.77992 -13.2617
26182 1 -2.56481 -0.343515 -14.7387
25986 1 0.267952 -3.19144 -14.7015
26183 1 0.258147 -0.321905 -14.7289
26185 1 3.13585 -0.27334 -14.7161
26405 1 -2.58673 2.54081 -14.7526
31084 1 -1.19558 1.1192 -13.2797
26411 1 0.271976 2.53529 -14.7656
31089 1 1.6814 1.13314 -13.2761
26418 1 3.13022 2.57185 -14.7664
21672 1 0.490347 5.55969 -23.2816
21666 1 -2.43713 5.50343 -20.4367
26409 1 -1.07543 7.00648 -19.044
21671 1 0.401244 5.55252 -20.4317
21675 1 3.29924 5.57275 -20.4379
26406 1 -2.52726 5.50742 -17.645
26412 1 0.316753 5.5094 -17.6513
89280 1 26.1803 12.3825 46.9932
89286 1 29.0795 12.3035 46.9495
94079 1 25.9248 12.3949 49.7561
93873 1 28.8474 9.47221 49.6877
89091 1 27.5496 10.9396 48.3808
93874 1 29.6947 11.6333 50.5809
93871 1 27.3232 11.0163 50.9796
94078 1 25.7813 12.5477 52.3355
93872 1 28.7171 9.67613 52.3726
93868 1 27.2422 11.2478 53.7131
93875 1 29.8823 11.528 53.4725
2974 1 -17.854 21.0449 -42.0725
2978 1 -16.3616 19.6013 -43.4646
2985 1 -13.7008 19.9362 -43.6456
50994 1 -10.4821 18.4385 9.3168
50993 1 -11.9758 19.7431 7.8245
50999 1 -9.00002 19.8178 7.93346
55744 1 -10.0987 20.8103 10.484
55742 1 -10.5501 18.4322 12.1245
55741 1 -12.1285 19.7863 10.6964
55747 1 -9.06338 16.9248 10.7361
55748 1 -8.612 19.3821 10.8292
55754 1 -6.15261 19.8147 10.7798
55746 1 -9.09788 19.7752 13.6105
89281 1 26.3737 14.9792 47.1957
94062 1 18.8182 16.6259 51.0986
94069 1 21.598 16.6724 51.1229
89276 1 24.5798 13.7796 48.3636
94080 1 26.4512 14.7991 50.1181
94076 1 24.4034 16.6377 51.1462
94075 1 24.3221 13.8415 51.0446
89285 1 28.0536 13.2863 48.9529
94247 1 13.1401 19.5199 51.0916
94252 1 15.9444 19.4477 51.0367
94254 1 17.5248 18.0749 49.7228
94255 1 17.8064 20.622 50.0139
94259 1 20.3919 18.0297 49.6762
94264 1 23.24 17.9525 49.7048
94270 1 26.5066 17.5217 50.2733
94053 1 15.752 16.6025 53.7796
94257 1 18.5441 16.7434 53.7267
94070 1 22.8405 15.249 52.4817
94064 1 20.0863 15.1769 52.4347
94077 1 25.747 15.3172 52.3946
94081 1 27.0863 14.0856 53.7834
94083 1 28.0975 13.2178 51.7454
94082 1 28.0796 15.9796 51.8433
94216 1 -1.38071 19.5268 53.6922
94222 1 1.47598 19.4975 53.6255
94228 1 4.25124 19.4726 53.563
94243 1 11.5585 20.9055 52.4529
94246 1 12.9079 19.5069 53.8225
94248 1 14.445 18.0392 52.453
94251 1 15.1219 20.3269 53.1066
94253 1 17.199 18.1296 52.4637
94256 1 17.893 20.4028 52.9897
94258 1 19.4725 18.8795 51.7719
94263 1 22.2828 18.9209 51.7324
94262 1 20.9868 17.2948 53.3897
94268 1 25.0566 18.9829 51.6496
94267 1 23.7995 17.3374 53.3534
94272 1 26.5881 17.4497 53.1913
98756 1 1.24271 16.6213 56.4066
98960 1 4.03826 16.696 56.4553
98966 1 6.89066 16.8342 56.5447
98984 1 15.6345 16.7802 56.4643
98789 1 19.9456 15.3748 55.0822
98792 1 22.6399 15.6625 54.949
98797 1 25.4615 15.77 54.8868
98944 1 -4.44205 19.4693 56.4617
98942 1 -5.74346 20.9471 55.093
98951 1 -0.0470604 18.0798 55.0788
98949 1 -1.70113 19.5649 56.4629
98947 1 -2.95785 20.8956 55.0359
98956 1 2.7696 18.1183 55.0681
98953 1 0.522549 20.3694 55.7295
98957 1 3.26867 20.4392 55.6811
98955 1 2.08588 18.7498 57.3483
98962 1 5.56708 18.1458 55.0374
98963 1 5.65952 20.7945 55.0918
98961 1 4.8553 18.8192 57.3131
98967 1 7.032 19.6008 56.5174
98978 1 12.7589 19.6462 56.4516
98976 1 11.3587 20.9586 55.1133
98982 1 14.265 18.1336 55.0829
98983 1 15.0737 20.325 55.8285
98985 1 16.669 18.7284 54.7458
98990 1 19.4332 18.8426 54.5897
98986 1 16.81 18.6069 57.5967
98954 1 1.0733 16.7951 59.08
98920 1 -17.4049 21.0199 57.8489
103915 1 -17.6411 20.9321 60.6006
103917 1 -16.0647 19.4969 59.1601
98926 1 -14.514 20.9511 57.7443
103921 1 -13.2411 19.5413 59.1567
103919 1 -14.7481 18.0107 60.4687
103925 1 -10.4593 19.5566 59.1203
98930 1 -11.7182 20.924 57.6885
103923 1 -11.9645 18.0761 60.508
103928 1 -9.12929 18.1736 60.5455
103929 1 -8.93383 20.9058 60.6041
98943 1 -4.63292 19.5348 59.087
98940 1 -5.99662 20.9199 57.8782
98945 1 -3.13125 18.0191 57.7731
103934 1 -6.18218 21.0427 60.4538
103939 1 -3.26642 18.1773 60.4459
98950 1 -0.340048 18.1763 57.7175
98948 1 -2.25371 20.1711 58.728
103943 1 -0.596995 18.534 60.258
103946 1 2.2036 18.6092 60.2457
98952 1 0.515419 20.2831 58.5822
98965 1 6.6289 17.077 59.0897
98959 1 3.77477 17.0916 58.9647
98964 1 6.41511 20.0523 58.8735
98968 1 8.40476 18.284 57.9315
98969 1 8.45818 21.0737 57.9716
98981 1 14.193 18.3452 57.8241
103913 1 -17.7508 20.9386 63.1667
103916 1 -16.2445 19.5065 61.7821
103918 1 -14.8742 18.1276 63.1691
103920 1 -13.837 20.1084 61.4705
103924 1 -11.1034 20.1723 61.4188
103927 1 -9.35618 18.4338 63.1171
103931 1 -7.5936 19.5591 61.8726
103936 1 -4.79659 19.6842 61.7739
103940 1 -2.15043 20.0505 61.5723
3180 1 -20.7467 23.8189 -42.0302
3178 1 -22.1544 25.2271 -43.1891
3184 1 -19.252 22.372 -43.4261
3185 1 -18.3509 24.4517 -42.4714
3188 1 -16.8814 23.0408 -43.8854
3405 1 -21.3883 27.4719 -42.5465
3181 1 -19.9261 26.0704 -43.9873
3403 1 -22.8342 28.8618 -41.1025
3182 1 -19.7959 25.8513 -41.0395
3176 1 -22.2431 25.2784 -40.6417
3407 1 -21.1986 27.2171 -39.5641
8432 1 -22.6138 28.5925 -38.1053
50997 1 -10.3993 21.2495 6.30961
51238 1 -10.4113 24.1387 6.45724
50995 1 -10.6395 21.4524 8.63469
51237 1 -10.4904 24.1414 9.28211
51001 1 -7.6448 21.257 9.35827
55743 1 -10.6148 21.3078 12.5559
55978 1 -11.9197 22.6447 10.7002
55750 1 -7.70507 21.2534 12.178
55983 1 -9.04131 22.8306 10.7421
94424 1 -1.15356 22.1074 53.9472
94430 1 1.66366 22.0203 53.9808
94433 1 4.3079 22.1616 53.6833
94446 1 10.1171 25.1181 53.9532
94451 1 13.3997 22.1125 51.3681
94453 1 13.509 21.892 54.187
99199 1 13.6084 24.6287 54.4074
99423 1 10.4166 27.7514 54.2246
94674 1 11.9551 26.3212 52.839
99162 1 -7.28986 22.3062 56.4907
99164 1 -5.49306 23.5248 55.3775
99168 1 -3.80916 21.7592 57.1331
99173 1 -1.0541 21.8697 56.9704
99181 1 3.17463 23.2883 55.5785
99186 1 5.68789 23.5268 55.1698
99184 1 4.66147 24.578 57.1474
99185 1 4.80367 21.6436 57.26
99190 1 7.06667 22.2442 56.5586
99189 1 7.04472 24.9806 56.638
99193 1 9.90592 25.1728 56.5575
99196 1 11.5019 23.6988 55.2186
99198 1 12.8851 22.3554 56.4635
99202 1 15.1645 23.0702 55.9819
99200 1 13.6221 24.6057 57.1706
99410 1 3.26383 29.1409 55.6928
99415 1 5.85226 29.2748 55.3953
99412 1 4.65165 27.4091 57.1579
99416 1 7.07521 27.8465 56.8061
99422 1 10.0052 27.8994 56.7545
99197 1 12.0441 26.1078 55.6461
99427 1 12.1163 28.855 55.9084
99432 1 13.6958 27.3604 57.4052
104105 1 -20.4993 23.8372 60.7294
104107 1 -18.9939 22.4073 59.297
99148 1 -17.1544 23.5642 58.1347
104108 1 -18.6264 24.9645 59.5667
104114 1 -15.4175 21.7573 59.8759
99152 1 -14.2807 23.4558 58.1777
104119 1 -12.6357 21.8194 59.8256
99155 1 -11.5589 23.6106 57.9113
104118 1 -12.7132 24.6759 59.7626
104124 1 -10.2286 22.2206 59.28
104125 1 -9.79219 24.6406 59.7991
99159 1 -8.76796 23.6865 57.8467
104129 1 -7.52594 22.3941 59.2291
104130 1 -6.90629 24.7128 59.7506
99166 1 -5.38337 23.2715 58.3634
104137 1 -3.82405 21.6977 59.9582
99188 1 6.29141 22.9818 58.774
99191 1 8.45322 23.7854 57.9902
104159 1 7.82752 24.3552 60.2991
103954 1 7.94019 21.4421 60.3729
104163 1 9.90199 22.5806 59.3303
104164 1 9.93913 25.2562 59.326
99195 1 11.3705 23.9126 57.7918
104169 1 12.7533 22.6638 59.2133
98980 1 14.1509 21.1072 57.9067
99204 1 15.2584 22.9916 58.9667
99411 1 3.14363 28.902 58.5395
104337 1 4.62315 27.4059 59.9783
99187 1 6.20662 25.828 58.7684
104342 1 6.69904 28.2642 59.2125
99418 1 8.44635 26.4728 58.0996
99419 1 8.46619 29.4378 58.1111
104348 1 9.87833 28.1229 59.2289
104346 1 8.2172 26.9123 60.5369
104170 1 12.75 25.3686 59.2725
99426 1 11.4449 26.6029 57.8996
99428 1 12.1882 28.8163 58.7777
104352 1 11.2389 26.8898 60.5629
99203 1 15.1764 25.8492 58.9052
104357 1 13.7641 27.2784 60.364
104104 1 -20.6533 23.7988 63.4254
104101 1 -21.9966 25.2683 62.1487
104106 1 -19.1528 22.3673 62.0215
104111 1 -16.9777 23.2418 61.1482
104109 1 -18.4572 24.6593 62.5737
104115 1 -15.3836 21.6167 62.7361
104123 1 -11.0573 22.9935 61.4174
103926 1 -9.47617 21.4063 62.9452
104128 1 -8.2123 23.0867 61.4114
104132 1 -6.57535 21.4835 62.9158
104134 1 -5.36686 23.1643 61.2819
104138 1 -3.70746 21.523 62.9061
104293 1 -21.5179 27.7554 62.4516
104295 1 -20.0777 26.3638 61.0102
104341 1 6.29774 28.6693 61.6321
104157 1 6.23724 25.8801 61.5314
104162 1 9.64244 25.5477 61.8942
94657 1 4.56422 30.6991 54.0116
99622 1 3.25772 31.9621 55.6641
99409 1 1.75066 30.4734 57.0799
99627 1 5.99751 32.0913 55.4686
99626 1 4.76661 33.3215 57.173
99632 1 9.11356 31.9411 55.7348
99417 1 7.2789 30.779 56.7774
99630 1 7.6388 33.2425 57.2419
99425 1 10.6288 30.3068 57.2737
99623 1 3.38293 31.7108 58.5283
104523 1 6.66956 31.2836 59.0637
99413 1 5.29375 29.6985 57.7649
104338 1 4.771 30.1757 60.1405
99635 1 9.17338 31.7659 58.6885
104345 1 8.13107 29.8511 60.471
104349 1 10.6615 30.2634 60.153
113 1 51.0233 -50.9031 -41.5412
117 1 53.9338 -50.8151 -41.5674
302 1 52.693 -49.274 -43.2452
299 1 52.0187 -46.9596 -42.5542
298 1 50.6895 -48.3378 -41.2522
308 1 55.4459 -49.3895 -43.1271
306 1 54.6743 -47.1551 -42.3951
305 1 53.383 -48.427 -41.0784
312 1 57.0056 -47.8202 -41.9643
318 1 59.7026 -47.9743 -41.759
4828 1 53.908 -50.8812 -38.6377
4854 1 65.7065 -53.2613 -38.4933
135 1 66.7596 -52.2995 -40.5571
137 1 68.0104 -53.8631 -39.1396
138 1 68.026 -50.8663 -39.1253
4860 1 69.3465 -52.4337 -37.7653
309 1 55.5359 -49.2814 -40.3545
307 1 54.8987 -46.9394 -39.7558
5042 1 53.6006 -48.2867 -38.368
5047 1 56.3446 -48.3242 -38.2672
314 1 58.2597 -49.4214 -40.2092
313 1 57.5102 -47.1167 -39.7431
5056 1 59.6638 -47.948 -38.8382
319 1 61.1451 -46.5262 -40.4104
4853 1 65.5704 -50.542 -38.7379
5067 1 65.4279 -47.906 -39.0432
333 1 68.0798 -47.9744 -39.1829
5073 1 69.2934 -46.5864 -37.688
5074 1 69.3441 -49.5134 -37.7106
4858 1 67.4351 -54.2221 -36.7306
4857 1 67.2198 -51.4925 -36.8716
5052 1 58.2324 -49.4177 -37.2279
5058 1 61.0122 -46.4707 -37.4682
5066 1 64.2166 -49.03 -37.1612
5068 1 65.9091 -47.2061 -35.4306
5064 1 63.9898 -46.4709 -37.467
5069 1 66.7443 -46.4421 -37.6455
5070 1 67.1026 -48.8107 -37.0105
5072 1 68.7866 -49.8198 -35.259
5071 1 68.6676 -47.0903 -35.3116
10024 1 62.6485 -47.5203 -32.7499
10028 1 65.6408 -47.2348 -32.6108
10025 1 62.6513 -47.3777 -29.857
47903 1 34.7826 -52.1339 6.08629
47906 1 37.6365 -51.9966 6.09654
47910 1 40.4616 -51.8206 6.05897
47897 1 30.4622 -50.8183 7.42629
47902 1 34.7702 -52.5406 8.63491
47905 1 36.2844 -53.9298 7.50908
47908 1 38.9095 -53.683 7.69099
47907 1 37.6615 -51.5999 8.64838
47912 1 40.8142 -53.8335 8.98669
47911 1 40.5685 -51.374 8.76362
47917 1 43.5428 -54.0993 8.90203
48091 1 31.7133 -48.9982 9.02526
47901 1 33.3124 -50.5115 7.68951
47904 1 36.1257 -50.262 7.46073
48099 1 34.8601 -48.556 8.7391
52737 1 30.3648 -51.2704 10.1309
52745 1 33.2996 -51.8 10.3452
52751 1 36.1033 -54.4935 10.3204
52753 1 36.2159 -52.1095 10.467
52749 1 34.8072 -50.7316 11.9524
52759 1 39.1127 -52.3756 10.3774
52755 1 37.6035 -53.4712 11.962
52758 1 39.0246 -54.7603 10.4399
52942 1 30.208 -47.5578 10.4277
52741 1 31.815 -50.4237 11.7589
52947 1 32.0721 -48.0587 11.7428
52943 1 30.3543 -48.992 13.155
52944 1 30.6032 -46.6192 13.1597
52951 1 33.5562 -49.5088 10.3603
52957 1 36.3086 -49.7029 10.2858
86546 1 82.0634 -46.9951 48.1943
91514 1 81.9087 -46.9683 51.0389
91506 1 78.919 -46.8005 53.5791
91513 1 81.8274 -46.9922 53.8956
95979 1 77.5184 -51.2464 55.2015
95981 1 79.0164 -52.8723 56.8112
95983 1 80.4258 -51.3493 55.3517
95987 1 81.9554 -53.0605 56.9707
96124 1 51.3985 -47.8882 57.6351
96180 1 78.403 -49.2887 56.2307
96181 1 78.5491 -46.5032 56.0928
95982 1 79.6552 -50.614 57.5393
96183 1 80.5863 -48.5174 55.3998
95988 1 82.0847 -50.2789 57.0473
96186 1 82.2917 -47.6317 57.3967
96182 1 79.7944 -47.7708 57.6097
100824 1 48.2906 -50.8667 60.6233
100830 1 51.1601 -50.8237 60.6708
100875 1 75.932 -52.7367 59.4129
100873 1 74.4153 -54.1342 60.7592
95977 1 77.3162 -51.2375 57.9798
100881 1 78.7964 -52.863 59.557
100884 1 79.4668 -50.624 60.3192
100878 1 76.902 -50.7003 60.3878
95986 1 80.9434 -51.9597 58.8381
101012 1 49.808 -46.5244 59.138
101009 1 48.1738 -48.0149 60.7124
101020 1 52.7347 -49.3378 59.1338
101013 1 49.885 -49.3268 59.1059
101017 1 51.9239 -47.2646 60.0928
101023 1 54.3554 -47.8267 60.3752
96173 1 75.5937 -49.3477 58.9733
96178 1 78.2582 -49.1492 58.9736
100828 1 51.0861 -50.821 63.5481
100874 1 75.4985 -52.2237 61.8325
100871 1 74.0511 -53.7435 63.2514
100879 1 77.4116 -54.3608 61.0116
100880 1 78.0532 -52.1229 61.7937
100876 1 76.6885 -53.6376 63.2606
100882 1 79.2569 -53.5946 63.1774
100886 1 80.7369 -52.1391 61.6522
100885 1 80.4062 -54.6343 61.2769
101011 1 49.1572 -49.7041 62.4862
101019 1 52.7166 -49.3217 61.9863
101015 1 50.5217 -48.4685 61.2701
101018 1 51.9404 -47.0823 62.8009
101016 1 50.5573 -48.3891 63.979
101022 1 54.2836 -47.7893 63.2397
101026 1 57.0669 -47.8412 63.2524
303 1 53.3498 -45.5939 -43.8164
310 1 56.0358 -45.8518 -43.6916
311 1 56.1557 -45.5802 -41.0994
316 1 58.5864 -46.2884 -43.4704
317 1 58.8413 -45.8105 -40.9845
534 1 60.2208 -44.5783 -42.3113
540 1 62.6928 -45.0047 -42.0308
539 1 61.67 -43.0642 -40.979
707 1 58.9858 -40.136 -43.9382
708 1 59.2346 -39.7415 -41.4365
712 1 61.5778 -40.4632 -43.944
535 1 60.2972 -41.7277 -42.5305
711 1 60.8753 -38.0629 -43.3003
713 1 61.6786 -40.1364 -41.2643
716 1 62.967 -38.9416 -42.6111
718 1 64.1978 -40.4116 -41.064
5053 1 58.972 -45.5757 -38.452
536 1 60.348 -44.3171 -39.658
5325 1 62.5803 -45.1244 -39.0285
5322 1 61.8678 -42.9413 -38.3721
543 1 64.006 -43.5189 -40.5965
5329 1 63.9683 -43.5757 -37.6688
537 1 60.4352 -41.3631 -39.8035
5552 1 62.1952 -39.3246 -38.9819
542 1 62.9645 -41.4661 -39.5959
710 1 60.8281 -37.9963 -40.5195
546 1 65.3046 -42.0738 -39.2031
720 1 65.0711 -39.3345 -39.1458
5318 1 60.4188 -44.0283 -37.1313
5324 1 62.3715 -44.9718 -36.1349
5323 1 62.1799 -42.2899 -36.0088
5331 1 65.2848 -44.9439 -36.1039
5063 1 63.7684 -46.3352 -34.6253
5336 1 67.8785 -44.9741 -36.2332
5338 1 69.2054 -43.5587 -34.8292
5333 1 66.5182 -43.4376 -34.7688
5342 1 70.6078 -45.1449 -36.2285
5319 1 60.7452 -40.952 -37.4047
5327 1 63.5992 -40.7864 -37.4794
10249 1 62.3815 -45.0062 -33.0158
10254 1 65.1643 -44.9804 -33.3231
10256 1 66.3678 -43.539 -31.9638
10251 1 63.7166 -43.4944 -31.6907
10035 1 67.4477 -45.5285 -33.8207
10261 1 68.9166 -43.8456 -32.1336
10043 1 70.3271 -45.3307 -33.5848
10248 1 62.2425 -44.9166 -30.1042
10027 1 64.3595 -45.7325 -31.0711
10255 1 65.8994 -44.0653 -29.5272
14840 1 63.6137 -43.4812 -28.8359
14585 1 64.2526 -45.7208 -28.2177
10032 1 67.1833 -45.6083 -31.032
10252 1 64.982 -41.9823 -30.4257
10258 1 67.6682 -42.1172 -30.5605
14836 1 62.1621 -44.861 -27.2324
14839 1 63.5414 -43.4462 -25.9903
14843 1 65.8024 -44.0625 -26.6881
14584 1 64.1989 -45.6741 -25.3398
14842 1 64.9406 -42.0015 -27.6348
14835 1 62.0978 -44.8236 -24.3813
19852 1 63.4985 -43.4305 -23.1721
19855 1 65.7637 -44.0426 -23.8399
19611 1 64.1586 -45.6445 -22.4789
14841 1 64.8877 -41.9931 -24.8022
19853 1 64.8466 -41.9891 -21.9771
19848 1 62.0514 -44.7947 -21.5434
24427 1 62.0201 -44.767 -18.7122
19610 1 64.1245 -45.6285 -19.6397
19851 1 63.4704 -43.4205 -20.3581
19854 1 65.7387 -44.0298 -21.0036
24432 1 64.8226 -41.9882 -19.1614
24426 1 62.0095 -44.7137 -15.8801
24192 1 64.0821 -45.6313 -16.8316
24430 1 63.4598 -43.4124 -17.5545
24435 1 65.7184 -44.0313 -18.1851
24433 1 64.8251 -41.9952 -16.3628
29336 1 62.4108 -44.3669 -12.7611
24434 1 65.6941 -44.0672 -15.3942
29097 1 63.9361 -45.7256 -14.0945
24431 1 63.4977 -43.4137 -14.8058
29342 1 65.4019 -44.2223 -12.6343
29347 1 67.2025 -42.4813 -13.7725
29335 1 62.1384 -41.9386 -13.2728
29341 1 64.7909 -42.0733 -13.5072
29334 1 60.9423 -42.9646 -11.351
29340 1 63.9664 -42.7921 -11.2191
29346 1 66.9382 -42.6067 -11.0802
29547 1 59.4542 -38.8083 -10.0665
29549 1 60.7312 -40.4704 -11.7675
29552 1 61.998 -39.0302 -10.5005
29338 1 62.513 -41.3398 -9.80335
29339 1 63.4296 -40.565 -11.9904
29555 1 64.5307 -39.1504 -10.6386
29344 1 65.4635 -41.1881 -9.69559
29345 1 65.9399 -40.6873 -12.1201
34247 1 61.087 -39.859 -8.37952
34248 1 62.5796 -38.3277 -6.85821
34254 1 65.5591 -38.2652 -6.70798
34251 1 64.009 -39.7697 -8.2855
86800 1 81.9171 -43.8174 44.9455
86542 1 80.5255 -45.3478 46.4568
86798 1 81.6461 -43.5201 47.6055
91510 1 80.412 -45.3268 49.2836
86802 1 82.8765 -44.885 49.0706
91724 1 80.2894 -45.3075 52.1195
91729 1 82.7091 -44.8074 51.8865
96369 1 51.4468 -45.0547 57.5483
96453 1 81.2494 -43.3765 56.1504
96449 1 80.1093 -45.0393 54.8006
96456 1 82.6323 -44.7893 54.6566